+ 0.1 0 4 ping 8900000 ------- 0 0.0 5.0 -1 0
- 0.1 0 4 ping 8900000 ------- 0 0.0 5.0 -1 0
+ 0.1 2 4 ping 8900000 ------- 0 2.0 3.0 -1 1
- 0.1 2 4 ping 8900000 ------- 0 2.0 3.0 -1 1
r 0.1366 2 4 ping 8900000 ------- 0 2.0 3.0 -1 1
+ 0.1366 4 3 ping 8900000 ------- 0 2.0 3.0 -1 1
- 0.1366 4 3 ping 8900000 ------- 0 2.0 3.0 -1 1
r 0.171846 0 4 ping 8900000 ------- 0 0.0 5.0 -1 0
+ 0.171846 4 5 ping 8900000 ------- 0 0.0 5.0 -1 0
- 0.171846 4 5 ping 8900000 ------- 0 0.0 5.0 -1 0
+ 0.2 0 4 ping 8900000 ------- 0 0.0 5.0 -1 2
- 0.2 0 4 ping 8900000 ------- 0 0.0 5.0 -1 2
+ 0.2 2 4 ping 8900000 ------- 0 2.0 3.0 -1 3
- 0.2 2 4 ping 8900000 ------- 0 2.0 3.0 -1 3
r 0.2366 2 4 ping 8900000 ------- 0 2.0 3.0 -1 3
+ 0.2366 4 3 ping 8900000 ------- 0 2.0 3.0 -1 3
r 0.271846 0 4 ping 8900000 ------- 0 0.0 5.0 -1 2
+ 0.271846 4 5 ping 8900000 ------- 0 0.0 5.0 -1 2
+ 0.3 0 4 ping 8900000 ------- 0 0.0 5.0 -1 4
- 0.3 0 4 ping 8900000 ------- 0 0.0 5.0 -1 4
+ 0.3 2 4 ping 8900000 ------- 0 2.0 3.0 -1 5
- 0.3 2 4 ping 8900000 ------- 0 2.0 3.0 -1 5
r 0.3366 2 4 ping 8900000 ------- 0 2.0 3.0 -1 5
+ 0.3366 4 3 ping 8900000 ------- 0 2.0 3.0 -1 5
r 0.371846 0 4 ping 8900000 ------- 0 0.0 5.0 -1 4
+ 0.371846 4 5 ping 8900000 ------- 0 0.0 5.0 -1 4
d 0.371846 4 5 ping 8900000 ------- 0 0.0 5.0 -1 4
+ 0.4 0 4 ping 8900000 ------- 0 0.0 5.0 -1 6
- 0.4 0 4 ping 8900000 ------- 0 0.0 5.0 -1 6
+ 0.4 2 4 ping 8900000 ------- 0 2.0 3.0 -1 7
- 0.4 2 4 ping 8900000 ------- 0 2.0 3.0 -1 7
r 0.4366 2 4 ping 8900000 ------- 0 2.0 3.0 -1 7
+ 0.4366 4 3 ping 8900000 ------- 0 2.0 3.0 -1 7
r 0.471846 0 4 ping 8900000 ------- 0 0.0 5.0 -1 6
+ 0.471846 4 5 ping 8900000 ------- 0 0.0 5.0 -1 6
d 0.471846 4 5 ping 8900000 ------- 0 0.0 5.0 -1 6
- 0.4926 4 3 ping 8900000 ------- 0 2.0 3.0 -1 3
r 0.4936 4 3 ping 8900000 ------- 0 2.0 3.0 -1 1
+ 0.4936 3 4 ping 64 ------- 0 3.0 2.0 -1 8
- 0.4936 3 4 ping 64 ------- 0 3.0 2.0 -1 8
r 0.494603 3 4 ping 64 ------- 0 3.0 2.0 -1 8
+ 0.494603 4 2 ping 64 ------- 0 3.0 2.0 -1 8
- 0.494603 4 2 ping 64 ------- 0 3.0 2.0 -1 8
r 0.495603 4 2 ping 64 ------- 0 3.0 2.0 -1 8
+ 0.5 0 4 ping 8900000 ------- 0 0.0 5.0 -1 9
- 0.5 0 4 ping 8900000 ------- 0 0.0 5.0 -1 9
+ 0.5 2 4 ping 8900000 ------- 0 2.0 3.0 -1 10
- 0.5 2 4 ping 8900000 ------- 0 2.0 3.0 -1 10
r 0.5366 2 4 ping 8900000 ------- 0 2.0 3.0 -1 10
+ 0.5366 4 3 ping 8900000 ------- 0 2.0 3.0 -1 10
r 0.571846 0 4 ping 8900000 ------- 0 0.0 5.0 -1 9
+ 0.571846 4 5 ping 8900000 ------- 0 0.0 5.0 -1 9
d 0.571846 4 5 ping 8900000 ------- 0 0.0 5.0 -1 9
+ 0.6 0 4 ping 8900000 ------- 0 0.0 5.0 -1 11
- 0.6 0 4 ping 8900000 ------- 0 0.0 5.0 -1 11
+ 0.6 2 4 ping 8900000 ------- 0 2.0 3.0 -1 12
- 0.6 2 4 ping 8900000 ------- 0 2.0 3.0 -1 12
r 0.6366 2 4 ping 8900000 ------- 0 2.0 3.0 -1 12
+ 0.6366 4 3 ping 8900000 ------- 0 2.0 3.0 -1 12
r 0.671846 0 4 ping 8900000 ------- 0 0.0 5.0 -1 11
+ 0.671846 4 5 ping 8900000 ------- 0 0.0 5.0 -1 11
d 0.671846 4 5 ping 8900000 ------- 0 0.0 5.0 -1 11
+ 0.7 0 4 ping 8900000 ------- 0 0.0 5.0 -1 13
- 0.7 0 4 ping 8900000 ------- 0 0.0 5.0 -1 13
+ 0.7 2 4 ping 8900000 ------- 0 2.0 3.0 -1 14
- 0.7 2 4 ping 8900000 ------- 0 2.0 3.0 -1 14
r 0.7366 2 4 ping 8900000 ------- 0 2.0 3.0 -1 14
+ 0.7366 4 3 ping 8900000 ------- 0 2.0 3.0 -1 14
r 0.771846 0 4 ping 8900000 ------- 0 0.0 5.0 -1 13
+ 0.771846 4 5 ping 8900000 ------- 0 0.0 5.0 -1 13
d 0.771846 4 5 ping 8900000 ------- 0 0.0 5.0 -1 13
+ 0.8 0 4 ping 8900000 ------- 0 0.0 5.0 -1 15
- 0.8 0 4 ping 8900000 ------- 0 0.0 5.0 -1 15
+ 0.8 2 4 ping 8900000 ------- 0 2.0 3.0 -1 16
- 0.8 2 4 ping 8900000 ------- 0 2.0 3.0 -1 16
r 0.8366 2 4 ping 8900000 ------- 0 2.0 3.0 -1 16
+ 0.8366 4 3 ping 8900000 ------- 0 2.0 3.0 -1 16
- 0.8486 4 3 ping 8900000 ------- 0 2.0 3.0 -1 5
r 0.8496 4 3 ping 8900000 ------- 0 2.0 3.0 -1 3
+ 0.8496 3 4 ping 64 ------- 0 3.0 2.0 -1 17
- 0.8496 3 4 ping 64 ------- 0 3.0 2.0 -1 17
r 0.850603 3 4 ping 64 ------- 0 3.0 2.0 -1 17
+ 0.850603 4 2 ping 64 ------- 0 3.0 2.0 -1 17
- 0.850603 4 2 ping 64 ------- 0 3.0 2.0 -1 17
r 0.851603 4 2 ping 64 ------- 0 3.0 2.0 -1 17
r 0.871846 0 4 ping 8900000 ------- 0 0.0 5.0 -1 15
+ 0.871846 4 5 ping 8900000 ------- 0 0.0 5.0 -1 15
d 0.871846 4 5 ping 8900000 ------- 0 0.0 5.0 -1 15
+ 0.9 0 4 ping 8900000 ------- 0 0.0 5.0 -1 18
- 0.9 0 4 ping 8900000 ------- 0 0.0 5.0 -1 18
+ 0.9 2 4 ping 8900000 ------- 0 2.0 3.0 -1 19
- 0.9 2 4 ping 8900000 ------- 0 2.0 3.0 -1 19
r 0.9366 2 4 ping 8900000 ------- 0 2.0 3.0 -1 19
+ 0.9366 4 3 ping 8900000 ------- 0 2.0 3.0 -1 19
r 0.971846 0 4 ping 8900000 ------- 0 0.0 5.0 -1 18
+ 0.971846 4 5 ping 8900000 ------- 0 0.0 5.0 -1 18
d 0.971846 4 5 ping 8900000 ------- 0 0.0 5.0 -1 18
+ 1 0 4 ping 8900000 ------- 0 0.0 5.0 -1 20
- 1 0 4 ping 8900000 ------- 0 0.0 5.0 -1 20
+ 1 2 4 ping 8900000 ------- 0 2.0 3.0 -1 21
- 1 2 4 ping 8900000 ------- 0 2.0 3.0 -1 21
r 1.0366 2 4 ping 8900000 ------- 0 2.0 3.0 -1 21
+ 1.0366 4 3 ping 8900000 ------- 0 2.0 3.0 -1 21
r 1.071846 0 4 ping 8900000 ------- 0 0.0 5.0 -1 20
+ 1.071846 4 5 ping 8900000 ------- 0 0.0 5.0 -1 20
d 1.071846 4 5 ping 8900000 ------- 0 0.0 5.0 -1 20
+ 1.1 0 4 ping 8900000 ------- 0 0.0 5.0 -1 22
- 1.1 0 4 ping 8900000 ------- 0 0.0 5.0 -1 22
+ 1.1 2 4 ping 8900000 ------- 0 2.0 3.0 -1 23
- 1.1 2 4 ping 8900000 ------- 0 2.0 3.0 -1 23
r 1.1366 2 4 ping 8900000 ------- 0 2.0 3.0 -1 23
+ 1.1366 4 3 ping 8900000 ------- 0 2.0 3.0 -1 23
r 1.171846 0 4 ping 8900000 ------- 0 0.0 5.0 -1 22
+ 1.171846 4 5 ping 8900000 ------- 0 0.0 5.0 -1 22
d 1.171846 4 5 ping 8900000 ------- 0 0.0 5.0 -1 22
+ 1.2 0 4 ping 8900000 ------- 0 0.0 5.0 -1 24
- 1.2 0 4 ping 8900000 ------- 0 0.0 5.0 -1 24
+ 1.2 2 4 ping 8900000 ------- 0 2.0 3.0 -1 25
- 1.2 2 4 ping 8900000 ------- 0 2.0 3.0 -1 25
- 1.2046 4 3 ping 8900000 ------- 0 2.0 3.0 -1 7
r 1.2056 4 3 ping 8900000 ------- 0 2.0 3.0 -1 5
+ 1.2056 3 4 ping 64 ------- 0 3.0 2.0 -1 26
- 1.2056 3 4 ping 64 ------- 0 3.0 2.0 -1 26
r 1.206603 3 4 ping 64 ------- 0 3.0 2.0 -1 26
+ 1.206603 4 2 ping 64 ------- 0 3.0 2.0 -1 26
- 1.206603 4 2 ping 64 ------- 0 3.0 2.0 -1 26
r 1.207603 4 2 ping 64 ------- 0 3.0 2.0 -1 26
r 1.2366 2 4 ping 8900000 ------- 0 2.0 3.0 -1 25
+ 1.2366 4 3 ping 8900000 ------- 0 2.0 3.0 -1 25
r 1.271846 0 4 ping 8900000 ------- 0 0.0 5.0 -1 24
+ 1.271846 4 5 ping 8900000 ------- 0 0.0 5.0 -1 24
d 1.271846 4 5 ping 8900000 ------- 0 0.0 5.0 -1 24
+ 1.3 0 4 ping 8900000 ------- 0 0.0 5.0 -1 27
- 1.3 0 4 ping 8900000 ------- 0 0.0 5.0 -1 27
+ 1.3 2 4 ping 8900000 ------- 0 2.0 3.0 -1 28
- 1.3 2 4 ping 8900000 ------- 0 2.0 3.0 -1 28
r 1.3366 2 4 ping 8900000 ------- 0 2.0 3.0 -1 28
+ 1.3366 4 3 ping 8900000 ------- 0 2.0 3.0 -1 28
r 1.371846 0 4 ping 8900000 ------- 0 0.0 5.0 -1 27
+ 1.371846 4 5 ping 8900000 ------- 0 0.0 5.0 -1 27
d 1.371846 4 5 ping 8900000 ------- 0 0.0 5.0 -1 27
+ 1.4 0 4 ping 8900000 ------- 0 0.0 5.0 -1 29
- 1.4 0 4 ping 8900000 ------- 0 0.0 5.0 -1 29
+ 1.4 2 4 ping 8900000 ------- 0 2.0 3.0 -1 30
- 1.4 2 4 ping 8900000 ------- 0 2.0 3.0 -1 30
r 1.4366 2 4 ping 8900000 ------- 0 2.0 3.0 -1 30
+ 1.4366 4 3 ping 8900000 ------- 0 2.0 3.0 -1 30
r 1.471846 0 4 ping 8900000 ------- 0 0.0 5.0 -1 29
+ 1.471846 4 5 ping 8900000 ------- 0 0.0 5.0 -1 29
d 1.471846 4 5 ping 8900000 ------- 0 0.0 5.0 -1 29
+ 1.5 0 4 ping 8900000 ------- 0 0.0 5.0 -1 31
- 1.5 0 4 ping 8900000 ------- 0 0.0 5.0 -1 31
+ 1.5 2 4 ping 8900000 ------- 0 2.0 3.0 -1 32
- 1.5 2 4 ping 8900000 ------- 0 2.0 3.0 -1 32
r 1.5366 2 4 ping 8900000 ------- 0 2.0 3.0 -1 32
+ 1.5366 4 3 ping 8900000 ------- 0 2.0 3.0 -1 32
- 1.5606 4 3 ping 8900000 ------- 0 2.0 3.0 -1 10
r 1.5616 4 3 ping 8900000 ------- 0 2.0 3.0 -1 7
+ 1.5616 3 4 ping 64 ------- 0 3.0 2.0 -1 33
- 1.5616 3 4 ping 64 ------- 0 3.0 2.0 -1 33
r 1.562603 3 4 ping 64 ------- 0 3.0 2.0 -1 33
+ 1.562603 4 2 ping 64 ------- 0 3.0 2.0 -1 33
- 1.562603 4 2 ping 64 ------- 0 3.0 2.0 -1 33
r 1.563603 4 2 ping 64 ------- 0 3.0 2.0 -1 33
r 1.571846 0 4 ping 8900000 ------- 0 0.0 5.0 -1 31
+ 1.571846 4 5 ping 8900000 ------- 0 0.0 5.0 -1 31
d 1.571846 4 5 ping 8900000 ------- 0 0.0 5.0 -1 31
+ 1.6 0 4 ping 8900000 ------- 0 0.0 5.0 -1 34
- 1.6 0 4 ping 8900000 ------- 0 0.0 5.0 -1 34
+ 1.6 2 4 ping 8900000 ------- 0 2.0 3.0 -1 35
- 1.6 2 4 ping 8900000 ------- 0 2.0 3.0 -1 35
r 1.6366 2 4 ping 8900000 ------- 0 2.0 3.0 -1 35
+ 1.6366 4 3 ping 8900000 ------- 0 2.0 3.0 -1 35
r 1.671846 0 4 ping 8900000 ------- 0 0.0 5.0 -1 34
+ 1.671846 4 5 ping 8900000 ------- 0 0.0 5.0 -1 34
d 1.671846 4 5 ping 8900000 ------- 0 0.0 5.0 -1 34
+ 1.7 0 4 ping 8900000 ------- 0 0.0 5.0 -1 36
- 1.7 0 4 ping 8900000 ------- 0 0.0 5.0 -1 36
+ 1.7 2 4 ping 8900000 ------- 0 2.0 3.0 -1 37
- 1.7 2 4 ping 8900000 ------- 0 2.0 3.0 -1 37
r 1.7366 2 4 ping 8900000 ------- 0 2.0 3.0 -1 37
+ 1.7366 4 3 ping 8900000 ------- 0 2.0 3.0 -1 37
r 1.771846 0 4 ping 8900000 ------- 0 0.0 5.0 -1 36
+ 1.771846 4 5 ping 8900000 ------- 0 0.0 5.0 -1 36
d 1.771846 4 5 ping 8900000 ------- 0 0.0 5.0 -1 36
+ 1.8 0 4 ping 8900000 ------- 0 0.0 5.0 -1 38
- 1.8 0 4 ping 8900000 ------- 0 0.0 5.0 -1 38
+ 1.8 2 4 ping 8900000 ------- 0 2.0 3.0 -1 39
- 1.8 2 4 ping 8900000 ------- 0 2.0 3.0 -1 39
r 1.8366 2 4 ping 8900000 ------- 0 2.0 3.0 -1 39
+ 1.8366 4 3 ping 8900000 ------- 0 2.0 3.0 -1 39
r 1.871846 0 4 ping 8900000 ------- 0 0.0 5.0 -1 38
+ 1.871846 4 5 ping 8900000 ------- 0 0.0 5.0 -1 38
d 1.871846 4 5 ping 8900000 ------- 0 0.0 5.0 -1 38
+ 1.9 0 4 ping 8900000 ------- 0 0.0 5.0 -1 40
- 1.9 0 4 ping 8900000 ------- 0 0.0 5.0 -1 40
+ 1.9 2 4 ping 8900000 ------- 0 2.0 3.0 -1 41
- 1.9 2 4 ping 8900000 ------- 0 2.0 3.0 -1 41
- 1.9166 4 3 ping 8900000 ------- 0 2.0 3.0 -1 12
r 1.9176 4 3 ping 8900000 ------- 0 2.0 3.0 -1 10
+ 1.9176 3 4 ping 64 ------- 0 3.0 2.0 -1 42
- 1.9176 3 4 ping 64 ------- 0 3.0 2.0 -1 42
r 1.918603 3 4 ping 64 ------- 0 3.0 2.0 -1 42
+ 1.918603 4 2 ping 64 ------- 0 3.0 2.0 -1 42
- 1.918603 4 2 ping 64 ------- 0 3.0 2.0 -1 42
r 1.919603 4 2 ping 64 ------- 0 3.0 2.0 -1 42
r 1.9366 2 4 ping 8900000 ------- 0 2.0 3.0 -1 41
+ 1.9366 4 3 ping 8900000 ------- 0 2.0 3.0 -1 41
r 1.971846 0 4 ping 8900000 ------- 0 0.0 5.0 -1 40
+ 1.971846 4 5 ping 8900000 ------- 0 0.0 5.0 -1 40
d 1.971846 4 5 ping 8900000 ------- 0 0.0 5.0 -1 40
+ 2 0 4 ping 8900000 ------- 0 0.0 5.0 -1 43
- 2 0 4 ping 8900000 ------- 0 0.0 5.0 -1 43
+ 2 2 4 ping 8900000 ------- 0 2.0 3.0 -1 44
- 2 2 4 ping 8900000 ------- 0 2.0 3.0 -1 44
r 2.0366 2 4 ping 8900000 ------- 0 2.0 3.0 -1 44
+ 2.0366 4 3 ping 8900000 ------- 0 2.0 3.0 -1 44
r 2.071846 0 4 ping 8900000 ------- 0 0.0 5.0 -1 43
+ 2.071846 4 5 ping 8900000 ------- 0 0.0 5.0 -1 43
d 2.071846 4 5 ping 8900000 ------- 0 0.0 5.0 -1 43
+ 2.1 0 4 ping 8900000 ------- 0 0.0 5.0 -1 45
- 2.1 0 4 ping 8900000 ------- 0 0.0 5.0 -1 45
+ 2.1 2 4 ping 8900000 ------- 0 2.0 3.0 -1 46
- 2.1 2 4 ping 8900000 ------- 0 2.0 3.0 -1 46
r 2.1366 2 4 ping 8900000 ------- 0 2.0 3.0 -1 46
+ 2.1366 4 3 ping 8900000 ------- 0 2.0 3.0 -1 46
r 2.171846 0 4 ping 8900000 ------- 0 0.0 5.0 -1 45
+ 2.171846 4 5 ping 8900000 ------- 0 0.0 5.0 -1 45
d 2.171846 4 5 ping 8900000 ------- 0 0.0 5.0 -1 45
+ 2.2 0 4 ping 8900000 ------- 0 0.0 5.0 -1 47
- 2.2 0 4 ping 8900000 ------- 0 0.0 5.0 -1 47
+ 2.2 2 4 ping 8900000 ------- 0 2.0 3.0 -1 48
- 2.2 2 4 ping 8900000 ------- 0 2.0 3.0 -1 48
r 2.2366 2 4 ping 8900000 ------- 0 2.0 3.0 -1 48
+ 2.2366 4 3 ping 8900000 ------- 0 2.0 3.0 -1 48
r 2.271846 0 4 ping 8900000 ------- 0 0.0 5.0 -1 47
+ 2.271846 4 5 ping 8900000 ------- 0 0.0 5.0 -1 47
d 2.271846 4 5 ping 8900000 ------- 0 0.0 5.0 -1 47
- 2.2726 4 3 ping 8900000 ------- 0 2.0 3.0 -1 14
r 2.2736 4 3 ping 8900000 ------- 0 2.0 3.0 -1 12
+ 2.2736 3 4 ping 64 ------- 0 3.0 2.0 -1 49
- 2.2736 3 4 ping 64 ------- 0 3.0 2.0 -1 49
r 2.274603 3 4 ping 64 ------- 0 3.0 2.0 -1 49
+ 2.274603 4 2 ping 64 ------- 0 3.0 2.0 -1 49
- 2.274603 4 2 ping 64 ------- 0 3.0 2.0 -1 49
r 2.275603 4 2 ping 64 ------- 0 3.0 2.0 -1 49
+ 2.3 0 4 ping 8900000 ------- 0 0.0 5.0 -1 50
- 2.3 0 4 ping 8900000 ------- 0 0.0 5.0 -1 50
+ 2.3 2 4 ping 8900000 ------- 0 2.0 3.0 -1 51
- 2.3 2 4 ping 8900000 ------- 0 2.0 3.0 -1 51
r 2.3366 2 4 ping 8900000 ------- 0 2.0 3.0 -1 51
+ 2.3366 4 3 ping 8900000 ------- 0 2.0 3.0 -1 51
r 2.371846 0 4 ping 8900000 ------- 0 0.0 5.0 -1 50
+ 2.371846 4 5 ping 8900000 ------- 0 0.0 5.0 -1 50
d 2.371846 4 5 ping 8900000 ------- 0 0.0 5.0 -1 50
+ 2.4 0 4 ping 8900000 ------- 0 0.0 5.0 -1 52
- 2.4 0 4 ping 8900000 ------- 0 0.0 5.0 -1 52
+ 2.4 2 4 ping 8900000 ------- 0 2.0 3.0 -1 53
- 2.4 2 4 ping 8900000 ------- 0 2.0 3.0 -1 53
r 2.4366 2 4 ping 8900000 ------- 0 2.0 3.0 -1 53
+ 2.4366 4 3 ping 8900000 ------- 0 2.0 3.0 -1 53
r 2.471846 0 4 ping 8900000 ------- 0 0.0 5.0 -1 52
+ 2.471846 4 5 ping 8900000 ------- 0 0.0 5.0 -1 52
d 2.471846 4 5 ping 8900000 ------- 0 0.0 5.0 -1 52
+ 2.5 0 4 ping 8900000 ------- 0 0.0 5.0 -1 54
- 2.5 0 4 ping 8900000 ------- 0 0.0 5.0 -1 54
+ 2.5 2 4 ping 8900000 ------- 0 2.0 3.0 -1 55
- 2.5 2 4 ping 8900000 ------- 0 2.0 3.0 -1 55
r 2.5366 2 4 ping 8900000 ------- 0 2.0 3.0 -1 55
+ 2.5366 4 3 ping 8900000 ------- 0 2.0 3.0 -1 55
r 2.571846 0 4 ping 8900000 ------- 0 0.0 5.0 -1 54
+ 2.571846 4 5 ping 8900000 ------- 0 0.0 5.0 -1 54
d 2.571846 4 5 ping 8900000 ------- 0 0.0 5.0 -1 54
+ 2.6 0 4 ping 8900000 ------- 0 0.0 5.0 -1 56
- 2.6 0 4 ping 8900000 ------- 0 0.0 5.0 -1 56
+ 2.6 2 4 ping 8900000 ------- 0 2.0 3.0 -1 57
- 2.6 2 4 ping 8900000 ------- 0 2.0 3.0 -1 57
- 2.6286 4 3 ping 8900000 ------- 0 2.0 3.0 -1 16
r 2.6296 4 3 ping 8900000 ------- 0 2.0 3.0 -1 14
+ 2.6296 3 4 ping 64 ------- 0 3.0 2.0 -1 58
- 2.6296 3 4 ping 64 ------- 0 3.0 2.0 -1 58
r 2.630603 3 4 ping 64 ------- 0 3.0 2.0 -1 58
+ 2.630603 4 2 ping 64 ------- 0 3.0 2.0 -1 58
- 2.630603 4 2 ping 64 ------- 0 3.0 2.0 -1 58
r 2.631603 4 2 ping 64 ------- 0 3.0 2.0 -1 58
r 2.6366 2 4 ping 8900000 ------- 0 2.0 3.0 -1 57
+ 2.6366 4 3 ping 8900000 ------- 0 2.0 3.0 -1 57
r 2.671846 0 4 ping 8900000 ------- 0 0.0 5.0 -1 56
+ 2.671846 4 5 ping 8900000 ------- 0 0.0 5.0 -1 56
d 2.671846 4 5 ping 8900000 ------- 0 0.0 5.0 -1 56
+ 2.7 0 4 ping 8900000 ------- 0 0.0 5.0 -1 59
- 2.7 0 4 ping 8900000 ------- 0 0.0 5.0 -1 59
+ 2.7 2 4 ping 8900000 ------- 0 2.0 3.0 -1 60
- 2.7 2 4 ping 8900000 ------- 0 2.0 3.0 -1 60
r 2.7366 2 4 ping 8900000 ------- 0 2.0 3.0 -1 60
+ 2.7366 4 3 ping 8900000 ------- 0 2.0 3.0 -1 60
r 2.771846 0 4 ping 8900000 ------- 0 0.0 5.0 -1 59
+ 2.771846 4 5 ping 8900000 ------- 0 0.0 5.0 -1 59
d 2.771846 4 5 ping 8900000 ------- 0 0.0 5.0 -1 59
+ 2.8 0 4 ping 8900000 ------- 0 0.0 5.0 -1 61
- 2.8 0 4 ping 8900000 ------- 0 0.0 5.0 -1 61
+ 2.8 2 4 ping 8900000 ------- 0 2.0 3.0 -1 62
- 2.8 2 4 ping 8900000 ------- 0 2.0 3.0 -1 62
r 2.8366 2 4 ping 8900000 ------- 0 2.0 3.0 -1 62
+ 2.8366 4 3 ping 8900000 ------- 0 2.0 3.0 -1 62
r 2.871846 0 4 ping 8900000 ------- 0 0.0 5.0 -1 61
+ 2.871846 4 5 ping 8900000 ------- 0 0.0 5.0 -1 61
d 2.871846 4 5 ping 8900000 ------- 0 0.0 5.0 -1 61
+ 2.9 0 4 ping 8900000 ------- 0 0.0 5.0 -1 63
- 2.9 0 4 ping 8900000 ------- 0 0.0 5.0 -1 63
+ 2.9 2 4 ping 8900000 ------- 0 2.0 3.0 -1 64
- 2.9 2 4 ping 8900000 ------- 0 2.0 3.0 -1 64
r 2.9366 2 4 ping 8900000 ------- 0 2.0 3.0 -1 64
+ 2.9366 4 3 ping 8900000 ------- 0 2.0 3.0 -1 64
r 2.971846 0 4 ping 8900000 ------- 0 0.0 5.0 -1 63
+ 2.971846 4 5 ping 8900000 ------- 0 0.0 5.0 -1 63
d 2.971846 4 5 ping 8900000 ------- 0 0.0 5.0 -1 63
- 2.9846 4 3 ping 8900000 ------- 0 2.0 3.0 -1 19
r 2.9856 4 3 ping 8900000 ------- 0 2.0 3.0 -1 16
+ 2.9856 3 4 ping 64 ------- 0 3.0 2.0 -1 65
- 2.9856 3 4 ping 64 ------- 0 3.0 2.0 -1 65
r 2.986603 3 4 ping 64 ------- 0 3.0 2.0 -1 65
+ 2.986603 4 2 ping 64 ------- 0 3.0 2.0 -1 65
- 2.986603 4 2 ping 64 ------- 0 3.0 2.0 -1 65
r 2.987603 4 2 ping 64 ------- 0 3.0 2.0 -1 65
