+ 0.2 1 0 ping 64 ------- 0 1.0 4.0 -1 0
- 0.2 1 0 ping 64 ------- 0 1.0 4.0 -1 0
+ 0.2 2 0 ping 64 ------- 0 2.0 5.0 -1 1
- 0.2 2 0 ping 64 ------- 0 2.0 5.0 -1 1
r 0.211024 2 0 ping 64 ------- 0 2.0 5.0 -1 1
+ 0.211024 0 5 ping 64 ------- 0 2.0 5.0 -1 1
- 0.211024 0 5 ping 64 ------- 0 2.0 5.0 -1 1
r 0.21256 1 0 ping 64 ------- 0 1.0 4.0 -1 0
+ 0.21256 0 4 ping 64 ------- 0 1.0 4.0 -1 0
- 0.21256 0 4 ping 64 ------- 0 1.0 4.0 -1 0
r 0.221536 0 5 ping 64 ------- 0 2.0 5.0 -1 1
+ 0.221536 5 0 ping 64 ------- 0 5.0 2.0 -1 2
- 0.221536 5 0 ping 64 ------- 0 5.0 2.0 -1 2
r 0.232048 5 0 ping 64 ------- 0 5.0 2.0 -1 2
+ 0.232048 0 2 ping 64 ------- 0 5.0 2.0 -1 2
- 0.232048 0 2 ping 64 ------- 0 5.0 2.0 -1 2
r 0.243072 0 2 ping 64 ------- 0 5.0 2.0 -1 2
r 0.27376 0 4 ping 64 ------- 0 1.0 4.0 -1 0
+ 0.27376 4 0 ping 64 ------- 0 4.0 1.0 -1 3
- 0.27376 4 0 ping 64 ------- 0 4.0 1.0 -1 3
r 0.33496 4 0 ping 64 ------- 0 4.0 1.0 -1 3
+ 0.33496 0 1 ping 64 ------- 0 4.0 1.0 -1 3
- 0.33496 0 1 ping 64 ------- 0 4.0 1.0 -1 3
r 0.34752 0 1 ping 64 ------- 0 4.0 1.0 -1 3
+ 0.4 1 0 ping 64 ------- 0 1.0 4.0 -1 4
- 0.4 1 0 ping 64 ------- 0 1.0 4.0 -1 4
+ 0.4 2 0 ping 64 ------- 0 2.0 5.0 -1 5
- 0.4 2 0 ping 64 ------- 0 2.0 5.0 -1 5
r 0.411024 2 0 ping 64 ------- 0 2.0 5.0 -1 5
+ 0.411024 0 5 ping 64 ------- 0 2.0 5.0 -1 5
- 0.411024 0 5 ping 64 ------- 0 2.0 5.0 -1 5
r 0.41256 1 0 ping 64 ------- 0 1.0 4.0 -1 4
+ 0.41256 0 4 ping 64 ------- 0 1.0 4.0 -1 4
- 0.41256 0 4 ping 64 ------- 0 1.0 4.0 -1 4
r 0.421536 0 5 ping 64 ------- 0 2.0 5.0 -1 5
+ 0.421536 5 0 ping 64 ------- 0 5.0 2.0 -1 6
- 0.421536 5 0 ping 64 ------- 0 5.0 2.0 -1 6
r 0.432048 5 0 ping 64 ------- 0 5.0 2.0 -1 6
+ 0.432048 0 2 ping 64 ------- 0 5.0 2.0 -1 6
- 0.432048 0 2 ping 64 ------- 0 5.0 2.0 -1 6
r 0.443072 0 2 ping 64 ------- 0 5.0 2.0 -1 6
r 0.47376 0 4 ping 64 ------- 0 1.0 4.0 -1 4
+ 0.47376 4 0 ping 64 ------- 0 4.0 1.0 -1 7
- 0.47376 4 0 ping 64 ------- 0 4.0 1.0 -1 7
r 0.53496 4 0 ping 64 ------- 0 4.0 1.0 -1 7
+ 0.53496 0 1 ping 64 ------- 0 4.0 1.0 -1 7
- 0.53496 0 1 ping 64 ------- 0 4.0 1.0 -1 7
r 0.54752 0 1 ping 64 ------- 0 4.0 1.0 -1 7
+ 0.6 1 0 ping 64 ------- 0 1.0 4.0 -1 8
- 0.6 1 0 ping 64 ------- 0 1.0 4.0 -1 8
+ 0.6 2 0 ping 64 ------- 0 2.0 5.0 -1 9
- 0.6 2 0 ping 64 ------- 0 2.0 5.0 -1 9
r 0.611024 2 0 ping 64 ------- 0 2.0 5.0 -1 9
+ 0.611024 0 5 ping 64 ------- 0 2.0 5.0 -1 9
- 0.611024 0 5 ping 64 ------- 0 2.0 5.0 -1 9
r 0.61256 1 0 ping 64 ------- 0 1.0 4.0 -1 8
+ 0.61256 0 4 ping 64 ------- 0 1.0 4.0 -1 8
- 0.61256 0 4 ping 64 ------- 0 1.0 4.0 -1 8
r 0.621536 0 5 ping 64 ------- 0 2.0 5.0 -1 9
+ 0.621536 5 0 ping 64 ------- 0 5.0 2.0 -1 10
- 0.621536 5 0 ping 64 ------- 0 5.0 2.0 -1 10
r 0.632048 5 0 ping 64 ------- 0 5.0 2.0 -1 10
+ 0.632048 0 2 ping 64 ------- 0 5.0 2.0 -1 10
- 0.632048 0 2 ping 64 ------- 0 5.0 2.0 -1 10
r 0.643072 0 2 ping 64 ------- 0 5.0 2.0 -1 10
r 0.67376 0 4 ping 64 ------- 0 1.0 4.0 -1 8
+ 0.67376 4 0 ping 64 ------- 0 4.0 1.0 -1 11
- 0.67376 4 0 ping 64 ------- 0 4.0 1.0 -1 11
r 0.73496 4 0 ping 64 ------- 0 4.0 1.0 -1 11
+ 0.73496 0 1 ping 64 ------- 0 4.0 1.0 -1 11
- 0.73496 0 1 ping 64 ------- 0 4.0 1.0 -1 11
r 0.74752 0 1 ping 64 ------- 0 4.0 1.0 -1 11
+ 0.8 1 0 ping 64 ------- 0 1.0 4.0 -1 12
- 0.8 1 0 ping 64 ------- 0 1.0 4.0 -1 12
+ 0.8 2 0 ping 64 ------- 0 2.0 5.0 -1 13
- 0.8 2 0 ping 64 ------- 0 2.0 5.0 -1 13
r 0.811024 2 0 ping 64 ------- 0 2.0 5.0 -1 13
+ 0.811024 0 5 ping 64 ------- 0 2.0 5.0 -1 13
- 0.811024 0 5 ping 64 ------- 0 2.0 5.0 -1 13
r 0.81256 1 0 ping 64 ------- 0 1.0 4.0 -1 12
+ 0.81256 0 4 ping 64 ------- 0 1.0 4.0 -1 12
- 0.81256 0 4 ping 64 ------- 0 1.0 4.0 -1 12
r 0.821536 0 5 ping 64 ------- 0 2.0 5.0 -1 13
+ 0.821536 5 0 ping 64 ------- 0 5.0 2.0 -1 14
- 0.821536 5 0 ping 64 ------- 0 5.0 2.0 -1 14
r 0.832048 5 0 ping 64 ------- 0 5.0 2.0 -1 14
+ 0.832048 0 2 ping 64 ------- 0 5.0 2.0 -1 14
- 0.832048 0 2 ping 64 ------- 0 5.0 2.0 -1 14
r 0.843072 0 2 ping 64 ------- 0 5.0 2.0 -1 14
r 0.87376 0 4 ping 64 ------- 0 1.0 4.0 -1 12
+ 0.87376 4 0 ping 64 ------- 0 4.0 1.0 -1 15
- 0.87376 4 0 ping 64 ------- 0 4.0 1.0 -1 15
r 0.93496 4 0 ping 64 ------- 0 4.0 1.0 -1 15
+ 0.93496 0 1 ping 64 ------- 0 4.0 1.0 -1 15
- 0.93496 0 1 ping 64 ------- 0 4.0 1.0 -1 15
r 0.94752 0 1 ping 64 ------- 0 4.0 1.0 -1 15
+ 1 1 0 ping 64 ------- 0 1.0 4.0 -1 16
- 1 1 0 ping 64 ------- 0 1.0 4.0 -1 16
+ 1 2 0 ping 64 ------- 0 2.0 5.0 -1 17
- 1 2 0 ping 64 ------- 0 2.0 5.0 -1 17
r 1.011024 2 0 ping 64 ------- 0 2.0 5.0 -1 17
+ 1.011024 0 5 ping 64 ------- 0 2.0 5.0 -1 17
- 1.011024 0 5 ping 64 ------- 0 2.0 5.0 -1 17
r 1.01256 1 0 ping 64 ------- 0 1.0 4.0 -1 16
+ 1.01256 0 4 ping 64 ------- 0 1.0 4.0 -1 16
- 1.01256 0 4 ping 64 ------- 0 1.0 4.0 -1 16
r 1.021536 0 5 ping 64 ------- 0 2.0 5.0 -1 17
+ 1.021536 5 0 ping 64 ------- 0 5.0 2.0 -1 18
- 1.021536 5 0 ping 64 ------- 0 5.0 2.0 -1 18
r 1.032048 5 0 ping 64 ------- 0 5.0 2.0 -1 18
+ 1.032048 0 2 ping 64 ------- 0 5.0 2.0 -1 18
- 1.032048 0 2 ping 64 ------- 0 5.0 2.0 -1 18
r 1.043072 0 2 ping 64 ------- 0 5.0 2.0 -1 18
r 1.07376 0 4 ping 64 ------- 0 1.0 4.0 -1 16
+ 1.07376 4 0 ping 64 ------- 0 4.0 1.0 -1 19
- 1.07376 4 0 ping 64 ------- 0 4.0 1.0 -1 19
r 1.13496 4 0 ping 64 ------- 0 4.0 1.0 -1 19
+ 1.13496 0 1 ping 64 ------- 0 4.0 1.0 -1 19
- 1.13496 0 1 ping 64 ------- 0 4.0 1.0 -1 19
r 1.14752 0 1 ping 64 ------- 0 4.0 1.0 -1 19
+ 1.2 5 0 ping 64 ------- 0 5.0 2.0 -1 20
- 1.2 5 0 ping 64 ------- 0 5.0 2.0 -1 20
r 1.210512 5 0 ping 64 ------- 0 5.0 2.0 -1 20
+ 1.210512 0 2 ping 64 ------- 0 5.0 2.0 -1 20
- 1.210512 0 2 ping 64 ------- 0 5.0 2.0 -1 20
r 1.221536 0 2 ping 64 ------- 0 5.0 2.0 -1 20
+ 1.221536 2 0 ping 64 ------- 0 2.0 5.0 -1 21
- 1.221536 2 0 ping 64 ------- 0 2.0 5.0 -1 21
r 1.23256 2 0 ping 64 ------- 0 2.0 5.0 -1 21
+ 1.23256 0 5 ping 64 ------- 0 2.0 5.0 -1 21
- 1.23256 0 5 ping 64 ------- 0 2.0 5.0 -1 21
r 1.243072 0 5 ping 64 ------- 0 2.0 5.0 -1 21
