+ 0.2 0 2 tcp 40 ------- 0 0.0 3.0 0 0
- 0.2 0 2 tcp 40 ------- 0 0.0 3.0 0 0
r 0.21032 0 2 tcp 40 ------- 0 0.0 3.0 0 0
+ 0.21032 2 3 tcp 40 ------- 0 0.0 3.0 0 0
- 0.21032 2 3 tcp 40 ------- 0 0.0 3.0 0 0
r 0.22064 2 3 tcp 40 ------- 0 0.0 3.0 0 0
+ 0.22064 3 2 ack 40 ------- 0 3.0 0.0 0 1
- 0.22064 3 2 ack 40 ------- 0 3.0 0.0 0 1
r 0.23096 3 2 ack 40 ------- 0 3.0 0.0 0 1
+ 0.23096 2 0 ack 40 ------- 0 3.0 0.0 0 1
- 0.23096 2 0 ack 40 ------- 0 3.0 0.0 0 1
r 0.24128 2 0 ack 40 ------- 0 3.0 0.0 0 1
+ 0.24128 0 2 tcp 1040 ------- 0 0.0 3.0 1 2
- 0.24128 0 2 tcp 1040 ------- 0 0.0 3.0 1 2
+ 0.24128 0 2 tcp 1040 ------- 0 0.0 3.0 2 3
- 0.2496 0 2 tcp 1040 ------- 0 0.0 3.0 2 3
r 0.2596 0 2 tcp 1040 ------- 0 0.0 3.0 1 2
+ 0.2596 2 3 tcp 1040 ------- 0 0.0 3.0 1 2
- 0.2596 2 3 tcp 1040 ------- 0 0.0 3.0 1 2
r 0.26792 0 2 tcp 1040 ------- 0 0.0 3.0 2 3
+ 0.26792 2 3 tcp 1040 ------- 0 0.0 3.0 2 3
- 0.26792 2 3 tcp 1040 ------- 0 0.0 3.0 2 3
r 0.27792 2 3 tcp 1040 ------- 0 0.0 3.0 1 2
+ 0.27792 3 2 ack 40 ------- 0 3.0 0.0 1 4
- 0.27792 3 2 ack 40 ------- 0 3.0 0.0 1 4
r 0.28624 2 3 tcp 1040 ------- 0 0.0 3.0 2 3
+ 0.28624 3 2 ack 40 ------- 0 3.0 0.0 2 5
- 0.28624 3 2 ack 40 ------- 0 3.0 0.0 2 5
r 0.28824 3 2 ack 40 ------- 0 3.0 0.0 1 4
+ 0.28824 2 0 ack 40 ------- 0 3.0 0.0 1 4
- 0.28824 2 0 ack 40 ------- 0 3.0 0.0 1 4
r 0.29656 3 2 ack 40 ------- 0 3.0 0.0 2 5
+ 0.29656 2 0 ack 40 ------- 0 3.0 0.0 2 5
- 0.29656 2 0 ack 40 ------- 0 3.0 0.0 2 5
r 0.29856 2 0 ack 40 ------- 0 3.0 0.0 1 4
+ 0.29856 0 2 tcp 1040 ------- 0 0.0 3.0 3 6
- 0.29856 0 2 tcp 1040 ------- 0 0.0 3.0 3 6
+ 0.29856 0 2 tcp 1040 ------- 0 0.0 3.0 4 7
r 0.30688 2 0 ack 40 ------- 0 3.0 0.0 2 5
+ 0.30688 0 2 tcp 1040 ------- 0 0.0 3.0 5 8
+ 0.30688 0 2 tcp 1040 ------- 0 0.0 3.0 6 9
- 0.30688 0 2 tcp 1040 ------- 0 0.0 3.0 4 7
- 0.3152 0 2 tcp 1040 ------- 0 0.0 3.0 5 8
r 0.31688 0 2 tcp 1040 ------- 0 0.0 3.0 3 6
+ 0.31688 2 3 tcp 1040 ------- 0 0.0 3.0 3 6
- 0.31688 2 3 tcp 1040 ------- 0 0.0 3.0 3 6
- 0.32352 0 2 tcp 1040 ------- 0 0.0 3.0 6 9
r 0.3252 0 2 tcp 1040 ------- 0 0.0 3.0 4 7
+ 0.3252 2 3 tcp 1040 ------- 0 0.0 3.0 4 7
- 0.3252 2 3 tcp 1040 ------- 0 0.0 3.0 4 7
r 0.33352 0 2 tcp 1040 ------- 0 0.0 3.0 5 8
+ 0.33352 2 3 tcp 1040 ------- 0 0.0 3.0 5 8
- 0.33352 2 3 tcp 1040 ------- 0 0.0 3.0 5 8
r 0.3352 2 3 tcp 1040 ------- 0 0.0 3.0 3 6
+ 0.3352 3 2 ack 40 ------- 0 3.0 0.0 3 10
- 0.3352 3 2 ack 40 ------- 0 3.0 0.0 3 10
r 0.34184 0 2 tcp 1040 ------- 0 0.0 3.0 6 9
+ 0.34184 2 3 tcp 1040 ------- 0 0.0 3.0 6 9
- 0.34184 2 3 tcp 1040 ------- 0 0.0 3.0 6 9
r 0.34352 2 3 tcp 1040 ------- 0 0.0 3.0 4 7
+ 0.34352 3 2 ack 40 ------- 0 3.0 0.0 4 11
- 0.34352 3 2 ack 40 ------- 0 3.0 0.0 4 11
r 0.34552 3 2 ack 40 ------- 0 3.0 0.0 3 10
+ 0.34552 2 0 ack 40 ------- 0 3.0 0.0 3 10
- 0.34552 2 0 ack 40 ------- 0 3.0 0.0 3 10
r 0.35184 2 3 tcp 1040 ------- 0 0.0 3.0 5 8
+ 0.35184 3 2 ack 40 ------- 0 3.0 0.0 5 12
- 0.35184 3 2 ack 40 ------- 0 3.0 0.0 5 12
r 0.35384 3 2 ack 40 ------- 0 3.0 0.0 4 11
+ 0.35384 2 0 ack 40 ------- 0 3.0 0.0 4 11
- 0.35384 2 0 ack 40 ------- 0 3.0 0.0 4 11
r 0.35584 2 0 ack 40 ------- 0 3.0 0.0 3 10
+ 0.35584 0 2 tcp 1040 ------- 0 0.0 3.0 7 13
- 0.35584 0 2 tcp 1040 ------- 0 0.0 3.0 7 13
+ 0.35584 0 2 tcp 1040 ------- 0 0.0 3.0 8 14
r 0.36016 2 3 tcp 1040 ------- 0 0.0 3.0 6 9
+ 0.36016 3 2 ack 40 ------- 0 3.0 0.0 6 15
- 0.36016 3 2 ack 40 ------- 0 3.0 0.0 6 15
r 0.36216 3 2 ack 40 ------- 0 3.0 0.0 5 12
+ 0.36216 2 0 ack 40 ------- 0 3.0 0.0 5 12
- 0.36216 2 0 ack 40 ------- 0 3.0 0.0 5 12
r 0.36416 2 0 ack 40 ------- 0 3.0 0.0 4 11
+ 0.36416 0 2 tcp 1040 ------- 0 0.0 3.0 9 16
+ 0.36416 0 2 tcp 1040 ------- 0 0.0 3.0 10 17
- 0.36416 0 2 tcp 1040 ------- 0 0.0 3.0 8 14
r 0.37048 3 2 ack 40 ------- 0 3.0 0.0 6 15
+ 0.37048 2 0 ack 40 ------- 0 3.0 0.0 6 15
- 0.37048 2 0 ack 40 ------- 0 3.0 0.0 6 15
r 0.37248 2 0 ack 40 ------- 0 3.0 0.0 5 12
+ 0.37248 0 2 tcp 1040 ------- 0 0.0 3.0 11 18
+ 0.37248 0 2 tcp 1040 ------- 0 0.0 3.0 12 19
- 0.37248 0 2 tcp 1040 ------- 0 0.0 3.0 9 16
r 0.37416 0 2 tcp 1040 ------- 0 0.0 3.0 7 13
+ 0.37416 2 3 tcp 1040 ------- 0 0.0 3.0 7 13
- 0.37416 2 3 tcp 1040 ------- 0 0.0 3.0 7 13
r 0.3808 2 0 ack 40 ------- 0 3.0 0.0 6 15
+ 0.3808 0 2 tcp 1040 ------- 0 0.0 3.0 13 20
+ 0.3808 0 2 tcp 1040 ------- 0 0.0 3.0 14 21
- 0.3808 0 2 tcp 1040 ------- 0 0.0 3.0 10 17
r 0.38248 0 2 tcp 1040 ------- 0 0.0 3.0 8 14
+ 0.38248 2 3 tcp 1040 ------- 0 0.0 3.0 8 14
- 0.38248 2 3 tcp 1040 ------- 0 0.0 3.0 8 14
- 0.38912 0 2 tcp 1040 ------- 0 0.0 3.0 11 18
r 0.3908 0 2 tcp 1040 ------- 0 0.0 3.0 9 16
+ 0.3908 2 3 tcp 1040 ------- 0 0.0 3.0 9 16
- 0.3908 2 3 tcp 1040 ------- 0 0.0 3.0 9 16
r 0.39248 2 3 tcp 1040 ------- 0 0.0 3.0 7 13
+ 0.39248 3 2 ack 40 ------- 0 3.0 0.0 7 22
- 0.39248 3 2 ack 40 ------- 0 3.0 0.0 7 22
- 0.39744 0 2 tcp 1040 ------- 0 0.0 3.0 12 19
r 0.39912 0 2 tcp 1040 ------- 0 0.0 3.0 10 17
+ 0.39912 2 3 tcp 1040 ------- 0 0.0 3.0 10 17
- 0.39912 2 3 tcp 1040 ------- 0 0.0 3.0 10 17
r 0.4008 2 3 tcp 1040 ------- 0 0.0 3.0 8 14
+ 0.4008 3 2 ack 40 ------- 0 3.0 0.0 8 23
- 0.4008 3 2 ack 40 ------- 0 3.0 0.0 8 23
r 0.4028 3 2 ack 40 ------- 0 3.0 0.0 7 22
+ 0.4028 2 0 ack 40 ------- 0 3.0 0.0 7 22
- 0.4028 2 0 ack 40 ------- 0 3.0 0.0 7 22
- 0.40576 0 2 tcp 1040 ------- 0 0.0 3.0 13 20
r 0.40744 0 2 tcp 1040 ------- 0 0.0 3.0 11 18
+ 0.40744 2 3 tcp 1040 ------- 0 0.0 3.0 11 18
- 0.40744 2 3 tcp 1040 ------- 0 0.0 3.0 11 18
r 0.40912 2 3 tcp 1040 ------- 0 0.0 3.0 9 16
+ 0.40912 3 2 ack 40 ------- 0 3.0 0.0 9 24
- 0.40912 3 2 ack 40 ------- 0 3.0 0.0 9 24
r 0.41112 3 2 ack 40 ------- 0 3.0 0.0 8 23
+ 0.41112 2 0 ack 40 ------- 0 3.0 0.0 8 23
- 0.41112 2 0 ack 40 ------- 0 3.0 0.0 8 23
r 0.41312 2 0 ack 40 ------- 0 3.0 0.0 7 22
+ 0.41312 0 2 tcp 1040 ------- 0 0.0 3.0 15 25
+ 0.41312 0 2 tcp 1040 ------- 0 0.0 3.0 16 26
- 0.41408 0 2 tcp 1040 ------- 0 0.0 3.0 14 21
r 0.41576 0 2 tcp 1040 ------- 0 0.0 3.0 12 19
+ 0.41576 2 3 tcp 1040 ------- 0 0.0 3.0 12 19
- 0.41576 2 3 tcp 1040 ------- 0 0.0 3.0 12 19
r 0.41744 2 3 tcp 1040 ------- 0 0.0 3.0 10 17
+ 0.41744 3 2 ack 40 ------- 0 3.0 0.0 10 27
- 0.41744 3 2 ack 40 ------- 0 3.0 0.0 10 27
r 0.41944 3 2 ack 40 ------- 0 3.0 0.0 9 24
+ 0.41944 2 0 ack 40 ------- 0 3.0 0.0 9 24
- 0.41944 2 0 ack 40 ------- 0 3.0 0.0 9 24
r 0.42144 2 0 ack 40 ------- 0 3.0 0.0 8 23
+ 0.42144 0 2 tcp 1040 ------- 0 0.0 3.0 17 28
+ 0.42144 0 2 tcp 1040 ------- 0 0.0 3.0 18 29
- 0.4224 0 2 tcp 1040 ------- 0 0.0 3.0 15 25
r 0.42408 0 2 tcp 1040 ------- 0 0.0 3.0 13 20
+ 0.42408 2 3 tcp 1040 ------- 0 0.0 3.0 13 20
- 0.42408 2 3 tcp 1040 ------- 0 0.0 3.0 13 20
r 0.42576 2 3 tcp 1040 ------- 0 0.0 3.0 11 18
+ 0.42576 3 2 ack 40 ------- 0 3.0 0.0 11 30
- 0.42576 3 2 ack 40 ------- 0 3.0 0.0 11 30
r 0.42776 3 2 ack 40 ------- 0 3.0 0.0 10 27
+ 0.42776 2 0 ack 40 ------- 0 3.0 0.0 10 27
- 0.42776 2 0 ack 40 ------- 0 3.0 0.0 10 27
r 0.42976 2 0 ack 40 ------- 0 3.0 0.0 9 24
+ 0.42976 0 2 tcp 1040 ------- 0 0.0 3.0 19 31
+ 0.42976 0 2 tcp 1040 ------- 0 0.0 3.0 20 32
- 0.43072 0 2 tcp 1040 ------- 0 0.0 3.0 16 26
r 0.4324 0 2 tcp 1040 ------- 0 0.0 3.0 14 21
+ 0.4324 2 3 tcp 1040 ------- 0 0.0 3.0 14 21
- 0.4324 2 3 tcp 1040 ------- 0 0.0 3.0 14 21
r 0.43408 2 3 tcp 1040 ------- 0 0.0 3.0 12 19
+ 0.43408 3 2 ack 40 ------- 0 3.0 0.0 12 33
- 0.43408 3 2 ack 40 ------- 0 3.0 0.0 12 33
r 0.43608 3 2 ack 40 ------- 0 3.0 0.0 11 30
+ 0.43608 2 0 ack 40 ------- 0 3.0 0.0 11 30
- 0.43608 2 0 ack 40 ------- 0 3.0 0.0 11 30
r 0.43808 2 0 ack 40 ------- 0 3.0 0.0 10 27
+ 0.43808 0 2 tcp 1040 ------- 0 0.0 3.0 21 34
+ 0.43808 0 2 tcp 1040 ------- 0 0.0 3.0 22 35
- 0.43904 0 2 tcp 1040 ------- 0 0.0 3.0 17 28
r 0.44072 0 2 tcp 1040 ------- 0 0.0 3.0 15 25
+ 0.44072 2 3 tcp 1040 ------- 0 0.0 3.0 15 25
- 0.44072 2 3 tcp 1040 ------- 0 0.0 3.0 15 25
r 0.4424 2 3 tcp 1040 ------- 0 0.0 3.0 13 20
+ 0.4424 3 2 ack 40 ------- 0 3.0 0.0 13 36
- 0.4424 3 2 ack 40 ------- 0 3.0 0.0 13 36
r 0.4444 3 2 ack 40 ------- 0 3.0 0.0 12 33
+ 0.4444 2 0 ack 40 ------- 0 3.0 0.0 12 33
- 0.4444 2 0 ack 40 ------- 0 3.0 0.0 12 33
r 0.4464 2 0 ack 40 ------- 0 3.0 0.0 11 30
+ 0.4464 0 2 tcp 1040 ------- 0 0.0 3.0 23 37
+ 0.4464 0 2 tcp 1040 ------- 0 0.0 3.0 24 38
- 0.44736 0 2 tcp 1040 ------- 0 0.0 3.0 18 29
r 0.44904 0 2 tcp 1040 ------- 0 0.0 3.0 16 26
+ 0.44904 2 3 tcp 1040 ------- 0 0.0 3.0 16 26
- 0.44904 2 3 tcp 1040 ------- 0 0.0 3.0 16 26
r 0.45072 2 3 tcp 1040 ------- 0 0.0 3.0 14 21
+ 0.45072 3 2 ack 40 ------- 0 3.0 0.0 14 39
- 0.45072 3 2 ack 40 ------- 0 3.0 0.0 14 39
r 0.45272 3 2 ack 40 ------- 0 3.0 0.0 13 36
+ 0.45272 2 0 ack 40 ------- 0 3.0 0.0 13 36
- 0.45272 2 0 ack 40 ------- 0 3.0 0.0 13 36
r 0.45472 2 0 ack 40 ------- 0 3.0 0.0 12 33
+ 0.45472 0 2 tcp 1040 ------- 0 0.0 3.0 25 40
+ 0.45472 0 2 tcp 1040 ------- 0 0.0 3.0 26 41
- 0.45568 0 2 tcp 1040 ------- 0 0.0 3.0 19 31
r 0.45736 0 2 tcp 1040 ------- 0 0.0 3.0 17 28
+ 0.45736 2 3 tcp 1040 ------- 0 0.0 3.0 17 28
- 0.45736 2 3 tcp 1040 ------- 0 0.0 3.0 17 28
r 0.45904 2 3 tcp 1040 ------- 0 0.0 3.0 15 25
+ 0.45904 3 2 ack 40 ------- 0 3.0 0.0 15 42
- 0.45904 3 2 ack 40 ------- 0 3.0 0.0 15 42
r 0.46104 3 2 ack 40 ------- 0 3.0 0.0 14 39
+ 0.46104 2 0 ack 40 ------- 0 3.0 0.0 14 39
- 0.46104 2 0 ack 40 ------- 0 3.0 0.0 14 39
r 0.46304 2 0 ack 40 ------- 0 3.0 0.0 13 36
+ 0.46304 0 2 tcp 1040 ------- 0 0.0 3.0 27 43
+ 0.46304 0 2 tcp 1040 ------- 0 0.0 3.0 28 44
- 0.464 0 2 tcp 1040 ------- 0 0.0 3.0 20 32
r 0.46568 0 2 tcp 1040 ------- 0 0.0 3.0 18 29
+ 0.46568 2 3 tcp 1040 ------- 0 0.0 3.0 18 29
- 0.46568 2 3 tcp 1040 ------- 0 0.0 3.0 18 29
r 0.46736 2 3 tcp 1040 ------- 0 0.0 3.0 16 26
+ 0.46736 3 2 ack 40 ------- 0 3.0 0.0 16 45
- 0.46736 3 2 ack 40 ------- 0 3.0 0.0 16 45
r 0.46936 3 2 ack 40 ------- 0 3.0 0.0 15 42
+ 0.46936 2 0 ack 40 ------- 0 3.0 0.0 15 42
- 0.46936 2 0 ack 40 ------- 0 3.0 0.0 15 42
r 0.47136 2 0 ack 40 ------- 0 3.0 0.0 14 39
+ 0.47136 0 2 tcp 1040 ------- 0 0.0 3.0 29 46
+ 0.47136 0 2 tcp 1040 ------- 0 0.0 3.0 30 47
- 0.47232 0 2 tcp 1040 ------- 0 0.0 3.0 21 34
r 0.474 0 2 tcp 1040 ------- 0 0.0 3.0 19 31
+ 0.474 2 3 tcp 1040 ------- 0 0.0 3.0 19 31
- 0.474 2 3 tcp 1040 ------- 0 0.0 3.0 19 31
r 0.47568 2 3 tcp 1040 ------- 0 0.0 3.0 17 28
+ 0.47568 3 2 ack 40 ------- 0 3.0 0.0 17 48
- 0.47568 3 2 ack 40 ------- 0 3.0 0.0 17 48
r 0.47768 3 2 ack 40 ------- 0 3.0 0.0 16 45
+ 0.47768 2 0 ack 40 ------- 0 3.0 0.0 16 45
- 0.47768 2 0 ack 40 ------- 0 3.0 0.0 16 45
r 0.47968 2 0 ack 40 ------- 0 3.0 0.0 15 42
+ 0.47968 0 2 tcp 1040 ------- 0 0.0 3.0 31 49
+ 0.47968 0 2 tcp 1040 ------- 0 0.0 3.0 32 50
- 0.48064 0 2 tcp 1040 ------- 0 0.0 3.0 22 35
r 0.48232 0 2 tcp 1040 ------- 0 0.0 3.0 20 32
+ 0.48232 2 3 tcp 1040 ------- 0 0.0 3.0 20 32
- 0.48232 2 3 tcp 1040 ------- 0 0.0 3.0 20 32
r 0.484 2 3 tcp 1040 ------- 0 0.0 3.0 18 29
+ 0.484 3 2 ack 40 ------- 0 3.0 0.0 18 51
- 0.484 3 2 ack 40 ------- 0 3.0 0.0 18 51
r 0.486 3 2 ack 40 ------- 0 3.0 0.0 17 48
+ 0.486 2 0 ack 40 ------- 0 3.0 0.0 17 48
- 0.486 2 0 ack 40 ------- 0 3.0 0.0 17 48
r 0.488 2 0 ack 40 ------- 0 3.0 0.0 16 45
+ 0.488 0 2 tcp 1040 ------- 0 0.0 3.0 33 52
+ 0.488 0 2 tcp 1040 ------- 0 0.0 3.0 34 53
- 0.48896 0 2 tcp 1040 ------- 0 0.0 3.0 23 37
r 0.49064 0 2 tcp 1040 ------- 0 0.0 3.0 21 34
+ 0.49064 2 3 tcp 1040 ------- 0 0.0 3.0 21 34
- 0.49064 2 3 tcp 1040 ------- 0 0.0 3.0 21 34
r 0.49232 2 3 tcp 1040 ------- 0 0.0 3.0 19 31
+ 0.49232 3 2 ack 40 ------- 0 3.0 0.0 19 54
- 0.49232 3 2 ack 40 ------- 0 3.0 0.0 19 54
r 0.49432 3 2 ack 40 ------- 0 3.0 0.0 18 51
+ 0.49432 2 0 ack 40 ------- 0 3.0 0.0 18 51
- 0.49432 2 0 ack 40 ------- 0 3.0 0.0 18 51
r 0.49632 2 0 ack 40 ------- 0 3.0 0.0 17 48
+ 0.49632 0 2 tcp 1040 ------- 0 0.0 3.0 35 55
+ 0.49632 0 2 tcp 1040 ------- 0 0.0 3.0 36 56
- 0.49728 0 2 tcp 1040 ------- 0 0.0 3.0 24 38
r 0.49896 0 2 tcp 1040 ------- 0 0.0 3.0 22 35
+ 0.49896 2 3 tcp 1040 ------- 0 0.0 3.0 22 35
- 0.49896 2 3 tcp 1040 ------- 0 0.0 3.0 22 35
r 0.50064 2 3 tcp 1040 ------- 0 0.0 3.0 20 32
+ 0.50064 3 2 ack 40 ------- 0 3.0 0.0 20 57
- 0.50064 3 2 ack 40 ------- 0 3.0 0.0 20 57
r 0.50264 3 2 ack 40 ------- 0 3.0 0.0 19 54
+ 0.50264 2 0 ack 40 ------- 0 3.0 0.0 19 54
- 0.50264 2 0 ack 40 ------- 0 3.0 0.0 19 54
r 0.50464 2 0 ack 40 ------- 0 3.0 0.0 18 51
+ 0.50464 0 2 tcp 1040 ------- 0 0.0 3.0 37 58
+ 0.50464 0 2 tcp 1040 ------- 0 0.0 3.0 38 59
- 0.5056 0 2 tcp 1040 ------- 0 0.0 3.0 25 40
r 0.50728 0 2 tcp 1040 ------- 0 0.0 3.0 23 37
+ 0.50728 2 3 tcp 1040 ------- 0 0.0 3.0 23 37
- 0.50728 2 3 tcp 1040 ------- 0 0.0 3.0 23 37
r 0.50896 2 3 tcp 1040 ------- 0 0.0 3.0 21 34
+ 0.50896 3 2 ack 40 ------- 0 3.0 0.0 21 60
- 0.50896 3 2 ack 40 ------- 0 3.0 0.0 21 60
r 0.51096 3 2 ack 40 ------- 0 3.0 0.0 20 57
+ 0.51096 2 0 ack 40 ------- 0 3.0 0.0 20 57
- 0.51096 2 0 ack 40 ------- 0 3.0 0.0 20 57
r 0.51296 2 0 ack 40 ------- 0 3.0 0.0 19 54
+ 0.51296 0 2 tcp 1040 ------- 0 0.0 3.0 39 61
- 0.51392 0 2 tcp 1040 ------- 0 0.0 3.0 26 41
r 0.5156 0 2 tcp 1040 ------- 0 0.0 3.0 24 38
+ 0.5156 2 3 tcp 1040 ------- 0 0.0 3.0 24 38
- 0.5156 2 3 tcp 1040 ------- 0 0.0 3.0 24 38
r 0.51728 2 3 tcp 1040 ------- 0 0.0 3.0 22 35
+ 0.51728 3 2 ack 40 ------- 0 3.0 0.0 22 62
- 0.51728 3 2 ack 40 ------- 0 3.0 0.0 22 62
r 0.51928 3 2 ack 40 ------- 0 3.0 0.0 21 60
+ 0.51928 2 0 ack 40 ------- 0 3.0 0.0 21 60
- 0.51928 2 0 ack 40 ------- 0 3.0 0.0 21 60
r 0.52128 2 0 ack 40 ------- 0 3.0 0.0 20 57
+ 0.52128 0 2 tcp 1040 ------- 0 0.0 3.0 40 63
- 0.52224 0 2 tcp 1040 ------- 0 0.0 3.0 27 43
r 0.52392 0 2 tcp 1040 ------- 0 0.0 3.0 25 40
+ 0.52392 2 3 tcp 1040 ------- 0 0.0 3.0 25 40
- 0.52392 2 3 tcp 1040 ------- 0 0.0 3.0 25 40
r 0.5256 2 3 tcp 1040 ------- 0 0.0 3.0 23 37
+ 0.5256 3 2 ack 40 ------- 0 3.0 0.0 23 64
- 0.5256 3 2 ack 40 ------- 0 3.0 0.0 23 64
r 0.5276 3 2 ack 40 ------- 0 3.0 0.0 22 62
+ 0.5276 2 0 ack 40 ------- 0 3.0 0.0 22 62
- 0.5276 2 0 ack 40 ------- 0 3.0 0.0 22 62
r 0.5296 2 0 ack 40 ------- 0 3.0 0.0 21 60
+ 0.5296 0 2 tcp 1040 ------- 0 0.0 3.0 41 65
- 0.53056 0 2 tcp 1040 ------- 0 0.0 3.0 28 44
r 0.53224 0 2 tcp 1040 ------- 0 0.0 3.0 26 41
+ 0.53224 2 3 tcp 1040 ------- 0 0.0 3.0 26 41
- 0.53224 2 3 tcp 1040 ------- 0 0.0 3.0 26 41
r 0.53392 2 3 tcp 1040 ------- 0 0.0 3.0 24 38
+ 0.53392 3 2 ack 40 ------- 0 3.0 0.0 24 66
- 0.53392 3 2 ack 40 ------- 0 3.0 0.0 24 66
r 0.53592 3 2 ack 40 ------- 0 3.0 0.0 23 64
+ 0.53592 2 0 ack 40 ------- 0 3.0 0.0 23 64
- 0.53592 2 0 ack 40 ------- 0 3.0 0.0 23 64
r 0.53792 2 0 ack 40 ------- 0 3.0 0.0 22 62
+ 0.53792 0 2 tcp 1040 ------- 0 0.0 3.0 42 67
- 0.53888 0 2 tcp 1040 ------- 0 0.0 3.0 29 46
r 0.54056 0 2 tcp 1040 ------- 0 0.0 3.0 27 43
+ 0.54056 2 3 tcp 1040 ------- 0 0.0 3.0 27 43
- 0.54056 2 3 tcp 1040 ------- 0 0.0 3.0 27 43
r 0.54224 2 3 tcp 1040 ------- 0 0.0 3.0 25 40
+ 0.54224 3 2 ack 40 ------- 0 3.0 0.0 25 68
- 0.54224 3 2 ack 40 ------- 0 3.0 0.0 25 68
r 0.54424 3 2 ack 40 ------- 0 3.0 0.0 24 66
+ 0.54424 2 0 ack 40 ------- 0 3.0 0.0 24 66
- 0.54424 2 0 ack 40 ------- 0 3.0 0.0 24 66
r 0.54624 2 0 ack 40 ------- 0 3.0 0.0 23 64
+ 0.54624 0 2 tcp 1040 ------- 0 0.0 3.0 43 69
- 0.5472 0 2 tcp 1040 ------- 0 0.0 3.0 30 47
r 0.54888 0 2 tcp 1040 ------- 0 0.0 3.0 28 44
+ 0.54888 2 3 tcp 1040 ------- 0 0.0 3.0 28 44
- 0.54888 2 3 tcp 1040 ------- 0 0.0 3.0 28 44
r 0.55056 2 3 tcp 1040 ------- 0 0.0 3.0 26 41
+ 0.55056 3 2 ack 40 ------- 0 3.0 0.0 26 70
- 0.55056 3 2 ack 40 ------- 0 3.0 0.0 26 70
r 0.55256 3 2 ack 40 ------- 0 3.0 0.0 25 68
+ 0.55256 2 0 ack 40 ------- 0 3.0 0.0 25 68
- 0.55256 2 0 ack 40 ------- 0 3.0 0.0 25 68
r 0.55456 2 0 ack 40 ------- 0 3.0 0.0 24 66
+ 0.55456 0 2 tcp 1040 ------- 0 0.0 3.0 44 71
- 0.55552 0 2 tcp 1040 ------- 0 0.0 3.0 31 49
r 0.5572 0 2 tcp 1040 ------- 0 0.0 3.0 29 46
+ 0.5572 2 3 tcp 1040 ------- 0 0.0 3.0 29 46
- 0.5572 2 3 tcp 1040 ------- 0 0.0 3.0 29 46
r 0.55888 2 3 tcp 1040 ------- 0 0.0 3.0 27 43
+ 0.55888 3 2 ack 40 ------- 0 3.0 0.0 27 72
- 0.55888 3 2 ack 40 ------- 0 3.0 0.0 27 72
r 0.56088 3 2 ack 40 ------- 0 3.0 0.0 26 70
+ 0.56088 2 0 ack 40 ------- 0 3.0 0.0 26 70
- 0.56088 2 0 ack 40 ------- 0 3.0 0.0 26 70
r 0.56288 2 0 ack 40 ------- 0 3.0 0.0 25 68
+ 0.56288 0 2 tcp 1040 ------- 0 0.0 3.0 45 73
- 0.56384 0 2 tcp 1040 ------- 0 0.0 3.0 32 50
r 0.56552 0 2 tcp 1040 ------- 0 0.0 3.0 30 47
+ 0.56552 2 3 tcp 1040 ------- 0 0.0 3.0 30 47
- 0.56552 2 3 tcp 1040 ------- 0 0.0 3.0 30 47
r 0.5672 2 3 tcp 1040 ------- 0 0.0 3.0 28 44
+ 0.5672 3 2 ack 40 ------- 0 3.0 0.0 28 74
- 0.5672 3 2 ack 40 ------- 0 3.0 0.0 28 74
r 0.5692 3 2 ack 40 ------- 0 3.0 0.0 27 72
+ 0.5692 2 0 ack 40 ------- 0 3.0 0.0 27 72
- 0.5692 2 0 ack 40 ------- 0 3.0 0.0 27 72
r 0.5712 2 0 ack 40 ------- 0 3.0 0.0 26 70
+ 0.5712 0 2 tcp 1040 ------- 0 0.0 3.0 46 75
- 0.57216 0 2 tcp 1040 ------- 0 0.0 3.0 33 52
r 0.57384 0 2 tcp 1040 ------- 0 0.0 3.0 31 49
+ 0.57384 2 3 tcp 1040 ------- 0 0.0 3.0 31 49
- 0.57384 2 3 tcp 1040 ------- 0 0.0 3.0 31 49
r 0.57552 2 3 tcp 1040 ------- 0 0.0 3.0 29 46
+ 0.57552 3 2 ack 40 ------- 0 3.0 0.0 29 76
- 0.57552 3 2 ack 40 ------- 0 3.0 0.0 29 76
r 0.57752 3 2 ack 40 ------- 0 3.0 0.0 28 74
+ 0.57752 2 0 ack 40 ------- 0 3.0 0.0 28 74
- 0.57752 2 0 ack 40 ------- 0 3.0 0.0 28 74
r 0.57952 2 0 ack 40 ------- 0 3.0 0.0 27 72
+ 0.57952 0 2 tcp 1040 ------- 0 0.0 3.0 47 77
- 0.58048 0 2 tcp 1040 ------- 0 0.0 3.0 34 53
r 0.58216 0 2 tcp 1040 ------- 0 0.0 3.0 32 50
+ 0.58216 2 3 tcp 1040 ------- 0 0.0 3.0 32 50
- 0.58216 2 3 tcp 1040 ------- 0 0.0 3.0 32 50
r 0.58384 2 3 tcp 1040 ------- 0 0.0 3.0 30 47
+ 0.58384 3 2 ack 40 ------- 0 3.0 0.0 30 78
- 0.58384 3 2 ack 40 ------- 0 3.0 0.0 30 78
r 0.58584 3 2 ack 40 ------- 0 3.0 0.0 29 76
+ 0.58584 2 0 ack 40 ------- 0 3.0 0.0 29 76
- 0.58584 2 0 ack 40 ------- 0 3.0 0.0 29 76
r 0.58784 2 0 ack 40 ------- 0 3.0 0.0 28 74
+ 0.58784 0 2 tcp 1040 ------- 0 0.0 3.0 48 79
- 0.5888 0 2 tcp 1040 ------- 0 0.0 3.0 35 55
r 0.59048 0 2 tcp 1040 ------- 0 0.0 3.0 33 52
+ 0.59048 2 3 tcp 1040 ------- 0 0.0 3.0 33 52
- 0.59048 2 3 tcp 1040 ------- 0 0.0 3.0 33 52
r 0.59216 2 3 tcp 1040 ------- 0 0.0 3.0 31 49
+ 0.59216 3 2 ack 40 ------- 0 3.0 0.0 31 80
- 0.59216 3 2 ack 40 ------- 0 3.0 0.0 31 80
r 0.59416 3 2 ack 40 ------- 0 3.0 0.0 30 78
+ 0.59416 2 0 ack 40 ------- 0 3.0 0.0 30 78
- 0.59416 2 0 ack 40 ------- 0 3.0 0.0 30 78
r 0.59616 2 0 ack 40 ------- 0 3.0 0.0 29 76
+ 0.59616 0 2 tcp 1040 ------- 0 0.0 3.0 49 81
- 0.59712 0 2 tcp 1040 ------- 0 0.0 3.0 36 56
r 0.5988 0 2 tcp 1040 ------- 0 0.0 3.0 34 53
+ 0.5988 2 3 tcp 1040 ------- 0 0.0 3.0 34 53
- 0.5988 2 3 tcp 1040 ------- 0 0.0 3.0 34 53
r 0.60048 2 3 tcp 1040 ------- 0 0.0 3.0 32 50
+ 0.60048 3 2 ack 40 ------- 0 3.0 0.0 32 82
- 0.60048 3 2 ack 40 ------- 0 3.0 0.0 32 82
r 0.60248 3 2 ack 40 ------- 0 3.0 0.0 31 80
+ 0.60248 2 0 ack 40 ------- 0 3.0 0.0 31 80
- 0.60248 2 0 ack 40 ------- 0 3.0 0.0 31 80
r 0.60448 2 0 ack 40 ------- 0 3.0 0.0 30 78
+ 0.60448 0 2 tcp 1040 ------- 0 0.0 3.0 50 83
- 0.60544 0 2 tcp 1040 ------- 0 0.0 3.0 37 58
r 0.60712 0 2 tcp 1040 ------- 0 0.0 3.0 35 55
+ 0.60712 2 3 tcp 1040 ------- 0 0.0 3.0 35 55
- 0.60712 2 3 tcp 1040 ------- 0 0.0 3.0 35 55
r 0.6088 2 3 tcp 1040 ------- 0 0.0 3.0 33 52
+ 0.6088 3 2 ack 40 ------- 0 3.0 0.0 33 84
- 0.6088 3 2 ack 40 ------- 0 3.0 0.0 33 84
r 0.6108 3 2 ack 40 ------- 0 3.0 0.0 32 82
+ 0.6108 2 0 ack 40 ------- 0 3.0 0.0 32 82
- 0.6108 2 0 ack 40 ------- 0 3.0 0.0 32 82
r 0.6128 2 0 ack 40 ------- 0 3.0 0.0 31 80
+ 0.6128 0 2 tcp 1040 ------- 0 0.0 3.0 51 85
- 0.61376 0 2 tcp 1040 ------- 0 0.0 3.0 38 59
r 0.61544 0 2 tcp 1040 ------- 0 0.0 3.0 36 56
+ 0.61544 2 3 tcp 1040 ------- 0 0.0 3.0 36 56
- 0.61544 2 3 tcp 1040 ------- 0 0.0 3.0 36 56
r 0.61712 2 3 tcp 1040 ------- 0 0.0 3.0 34 53
+ 0.61712 3 2 ack 40 ------- 0 3.0 0.0 34 86
- 0.61712 3 2 ack 40 ------- 0 3.0 0.0 34 86
r 0.61912 3 2 ack 40 ------- 0 3.0 0.0 33 84
+ 0.61912 2 0 ack 40 ------- 0 3.0 0.0 33 84
- 0.61912 2 0 ack 40 ------- 0 3.0 0.0 33 84
r 0.62112 2 0 ack 40 ------- 0 3.0 0.0 32 82
+ 0.62112 0 2 tcp 1040 ------- 0 0.0 3.0 52 87
- 0.62208 0 2 tcp 1040 ------- 0 0.0 3.0 39 61
r 0.62376 0 2 tcp 1040 ------- 0 0.0 3.0 37 58
+ 0.62376 2 3 tcp 1040 ------- 0 0.0 3.0 37 58
- 0.62376 2 3 tcp 1040 ------- 0 0.0 3.0 37 58
r 0.62544 2 3 tcp 1040 ------- 0 0.0 3.0 35 55
+ 0.62544 3 2 ack 40 ------- 0 3.0 0.0 35 88
- 0.62544 3 2 ack 40 ------- 0 3.0 0.0 35 88
r 0.62744 3 2 ack 40 ------- 0 3.0 0.0 34 86
+ 0.62744 2 0 ack 40 ------- 0 3.0 0.0 34 86
- 0.62744 2 0 ack 40 ------- 0 3.0 0.0 34 86
r 0.62944 2 0 ack 40 ------- 0 3.0 0.0 33 84
+ 0.62944 0 2 tcp 1040 ------- 0 0.0 3.0 53 89
- 0.6304 0 2 tcp 1040 ------- 0 0.0 3.0 40 63
r 0.63208 0 2 tcp 1040 ------- 0 0.0 3.0 38 59
+ 0.63208 2 3 tcp 1040 ------- 0 0.0 3.0 38 59
- 0.63208 2 3 tcp 1040 ------- 0 0.0 3.0 38 59
r 0.63376 2 3 tcp 1040 ------- 0 0.0 3.0 36 56
+ 0.63376 3 2 ack 40 ------- 0 3.0 0.0 36 90
- 0.63376 3 2 ack 40 ------- 0 3.0 0.0 36 90
r 0.63576 3 2 ack 40 ------- 0 3.0 0.0 35 88
+ 0.63576 2 0 ack 40 ------- 0 3.0 0.0 35 88
- 0.63576 2 0 ack 40 ------- 0 3.0 0.0 35 88
r 0.63776 2 0 ack 40 ------- 0 3.0 0.0 34 86
+ 0.63776 0 2 tcp 1040 ------- 0 0.0 3.0 54 91
- 0.63872 0 2 tcp 1040 ------- 0 0.0 3.0 41 65
r 0.6404 0 2 tcp 1040 ------- 0 0.0 3.0 39 61
+ 0.6404 2 3 tcp 1040 ------- 0 0.0 3.0 39 61
- 0.6404 2 3 tcp 1040 ------- 0 0.0 3.0 39 61
r 0.64208 2 3 tcp 1040 ------- 0 0.0 3.0 37 58
+ 0.64208 3 2 ack 40 ------- 0 3.0 0.0 37 92
- 0.64208 3 2 ack 40 ------- 0 3.0 0.0 37 92
r 0.64408 3 2 ack 40 ------- 0 3.0 0.0 36 90
+ 0.64408 2 0 ack 40 ------- 0 3.0 0.0 36 90
- 0.64408 2 0 ack 40 ------- 0 3.0 0.0 36 90
r 0.64608 2 0 ack 40 ------- 0 3.0 0.0 35 88
+ 0.64608 0 2 tcp 1040 ------- 0 0.0 3.0 55 93
- 0.64704 0 2 tcp 1040 ------- 0 0.0 3.0 42 67
r 0.64872 0 2 tcp 1040 ------- 0 0.0 3.0 40 63
+ 0.64872 2 3 tcp 1040 ------- 0 0.0 3.0 40 63
- 0.64872 2 3 tcp 1040 ------- 0 0.0 3.0 40 63
r 0.6504 2 3 tcp 1040 ------- 0 0.0 3.0 38 59
+ 0.6504 3 2 ack 40 ------- 0 3.0 0.0 38 94
- 0.6504 3 2 ack 40 ------- 0 3.0 0.0 38 94
r 0.6524 3 2 ack 40 ------- 0 3.0 0.0 37 92
+ 0.6524 2 0 ack 40 ------- 0 3.0 0.0 37 92
- 0.6524 2 0 ack 40 ------- 0 3.0 0.0 37 92
r 0.6544 2 0 ack 40 ------- 0 3.0 0.0 36 90
+ 0.6544 0 2 tcp 1040 ------- 0 0.0 3.0 56 95
- 0.65536 0 2 tcp 1040 ------- 0 0.0 3.0 43 69
r 0.65704 0 2 tcp 1040 ------- 0 0.0 3.0 41 65
+ 0.65704 2 3 tcp 1040 ------- 0 0.0 3.0 41 65
- 0.65704 2 3 tcp 1040 ------- 0 0.0 3.0 41 65
r 0.65872 2 3 tcp 1040 ------- 0 0.0 3.0 39 61
+ 0.65872 3 2 ack 40 ------- 0 3.0 0.0 39 96
- 0.65872 3 2 ack 40 ------- 0 3.0 0.0 39 96
r 0.66072 3 2 ack 40 ------- 0 3.0 0.0 38 94
+ 0.66072 2 0 ack 40 ------- 0 3.0 0.0 38 94
- 0.66072 2 0 ack 40 ------- 0 3.0 0.0 38 94
r 0.66272 2 0 ack 40 ------- 0 3.0 0.0 37 92
+ 0.66272 0 2 tcp 1040 ------- 0 0.0 3.0 57 97
- 0.66368 0 2 tcp 1040 ------- 0 0.0 3.0 44 71
r 0.66536 0 2 tcp 1040 ------- 0 0.0 3.0 42 67
+ 0.66536 2 3 tcp 1040 ------- 0 0.0 3.0 42 67
- 0.66536 2 3 tcp 1040 ------- 0 0.0 3.0 42 67
r 0.66704 2 3 tcp 1040 ------- 0 0.0 3.0 40 63
+ 0.66704 3 2 ack 40 ------- 0 3.0 0.0 40 98
- 0.66704 3 2 ack 40 ------- 0 3.0 0.0 40 98
r 0.66904 3 2 ack 40 ------- 0 3.0 0.0 39 96
+ 0.66904 2 0 ack 40 ------- 0 3.0 0.0 39 96
- 0.66904 2 0 ack 40 ------- 0 3.0 0.0 39 96
r 0.67104 2 0 ack 40 ------- 0 3.0 0.0 38 94
+ 0.67104 0 2 tcp 1040 ------- 0 0.0 3.0 58 99
- 0.672 0 2 tcp 1040 ------- 0 0.0 3.0 45 73
r 0.67368 0 2 tcp 1040 ------- 0 0.0 3.0 43 69
+ 0.67368 2 3 tcp 1040 ------- 0 0.0 3.0 43 69
- 0.67368 2 3 tcp 1040 ------- 0 0.0 3.0 43 69
r 0.67536 2 3 tcp 1040 ------- 0 0.0 3.0 41 65
+ 0.67536 3 2 ack 40 ------- 0 3.0 0.0 41 100
- 0.67536 3 2 ack 40 ------- 0 3.0 0.0 41 100
r 0.67736 3 2 ack 40 ------- 0 3.0 0.0 40 98
+ 0.67736 2 0 ack 40 ------- 0 3.0 0.0 40 98
- 0.67736 2 0 ack 40 ------- 0 3.0 0.0 40 98
r 0.67936 2 0 ack 40 ------- 0 3.0 0.0 39 96
+ 0.67936 0 2 tcp 1040 ------- 0 0.0 3.0 59 101
- 0.68032 0 2 tcp 1040 ------- 0 0.0 3.0 46 75
r 0.682 0 2 tcp 1040 ------- 0 0.0 3.0 44 71
+ 0.682 2 3 tcp 1040 ------- 0 0.0 3.0 44 71
- 0.682 2 3 tcp 1040 ------- 0 0.0 3.0 44 71
r 0.68368 2 3 tcp 1040 ------- 0 0.0 3.0 42 67
+ 0.68368 3 2 ack 40 ------- 0 3.0 0.0 42 102
- 0.68368 3 2 ack 40 ------- 0 3.0 0.0 42 102
r 0.68568 3 2 ack 40 ------- 0 3.0 0.0 41 100
+ 0.68568 2 0 ack 40 ------- 0 3.0 0.0 41 100
- 0.68568 2 0 ack 40 ------- 0 3.0 0.0 41 100
r 0.68768 2 0 ack 40 ------- 0 3.0 0.0 40 98
+ 0.68768 0 2 tcp 1040 ------- 0 0.0 3.0 60 103
- 0.68864 0 2 tcp 1040 ------- 0 0.0 3.0 47 77
r 0.69032 0 2 tcp 1040 ------- 0 0.0 3.0 45 73
+ 0.69032 2 3 tcp 1040 ------- 0 0.0 3.0 45 73
- 0.69032 2 3 tcp 1040 ------- 0 0.0 3.0 45 73
r 0.692 2 3 tcp 1040 ------- 0 0.0 3.0 43 69
+ 0.692 3 2 ack 40 ------- 0 3.0 0.0 43 104
- 0.692 3 2 ack 40 ------- 0 3.0 0.0 43 104
r 0.694 3 2 ack 40 ------- 0 3.0 0.0 42 102
+ 0.694 2 0 ack 40 ------- 0 3.0 0.0 42 102
- 0.694 2 0 ack 40 ------- 0 3.0 0.0 42 102
r 0.696 2 0 ack 40 ------- 0 3.0 0.0 41 100
+ 0.696 0 2 tcp 1040 ------- 0 0.0 3.0 61 105
- 0.69696 0 2 tcp 1040 ------- 0 0.0 3.0 48 79
r 0.69864 0 2 tcp 1040 ------- 0 0.0 3.0 46 75
+ 0.69864 2 3 tcp 1040 ------- 0 0.0 3.0 46 75
- 0.69864 2 3 tcp 1040 ------- 0 0.0 3.0 46 75
r 0.70032 2 3 tcp 1040 ------- 0 0.0 3.0 44 71
+ 0.70032 3 2 ack 40 ------- 0 3.0 0.0 44 106
- 0.70032 3 2 ack 40 ------- 0 3.0 0.0 44 106
r 0.70232 3 2 ack 40 ------- 0 3.0 0.0 43 104
+ 0.70232 2 0 ack 40 ------- 0 3.0 0.0 43 104
- 0.70232 2 0 ack 40 ------- 0 3.0 0.0 43 104
r 0.70432 2 0 ack 40 ------- 0 3.0 0.0 42 102
+ 0.70432 0 2 tcp 1040 ------- 0 0.0 3.0 62 107
- 0.70528 0 2 tcp 1040 ------- 0 0.0 3.0 49 81
r 0.70696 0 2 tcp 1040 ------- 0 0.0 3.0 47 77
+ 0.70696 2 3 tcp 1040 ------- 0 0.0 3.0 47 77
- 0.70696 2 3 tcp 1040 ------- 0 0.0 3.0 47 77
r 0.70864 2 3 tcp 1040 ------- 0 0.0 3.0 45 73
+ 0.70864 3 2 ack 40 ------- 0 3.0 0.0 45 108
- 0.70864 3 2 ack 40 ------- 0 3.0 0.0 45 108
r 0.71064 3 2 ack 40 ------- 0 3.0 0.0 44 106
+ 0.71064 2 0 ack 40 ------- 0 3.0 0.0 44 106
- 0.71064 2 0 ack 40 ------- 0 3.0 0.0 44 106
r 0.71264 2 0 ack 40 ------- 0 3.0 0.0 43 104
+ 0.71264 0 2 tcp 1040 ------- 0 0.0 3.0 63 109
- 0.7136 0 2 tcp 1040 ------- 0 0.0 3.0 50 83
r 0.71528 0 2 tcp 1040 ------- 0 0.0 3.0 48 79
+ 0.71528 2 3 tcp 1040 ------- 0 0.0 3.0 48 79
- 0.71528 2 3 tcp 1040 ------- 0 0.0 3.0 48 79
r 0.71696 2 3 tcp 1040 ------- 0 0.0 3.0 46 75
+ 0.71696 3 2 ack 40 ------- 0 3.0 0.0 46 110
- 0.71696 3 2 ack 40 ------- 0 3.0 0.0 46 110
r 0.71896 3 2 ack 40 ------- 0 3.0 0.0 45 108
+ 0.71896 2 0 ack 40 ------- 0 3.0 0.0 45 108
- 0.71896 2 0 ack 40 ------- 0 3.0 0.0 45 108
r 0.72096 2 0 ack 40 ------- 0 3.0 0.0 44 106
+ 0.72096 0 2 tcp 1040 ------- 0 0.0 3.0 64 111
- 0.72192 0 2 tcp 1040 ------- 0 0.0 3.0 51 85
r 0.7236 0 2 tcp 1040 ------- 0 0.0 3.0 49 81
+ 0.7236 2 3 tcp 1040 ------- 0 0.0 3.0 49 81
- 0.7236 2 3 tcp 1040 ------- 0 0.0 3.0 49 81
r 0.72528 2 3 tcp 1040 ------- 0 0.0 3.0 47 77
+ 0.72528 3 2 ack 40 ------- 0 3.0 0.0 47 112
- 0.72528 3 2 ack 40 ------- 0 3.0 0.0 47 112
r 0.72728 3 2 ack 40 ------- 0 3.0 0.0 46 110
+ 0.72728 2 0 ack 40 ------- 0 3.0 0.0 46 110
- 0.72728 2 0 ack 40 ------- 0 3.0 0.0 46 110
r 0.72928 2 0 ack 40 ------- 0 3.0 0.0 45 108
+ 0.72928 0 2 tcp 1040 ------- 0 0.0 3.0 65 113
- 0.73024 0 2 tcp 1040 ------- 0 0.0 3.0 52 87
r 0.73192 0 2 tcp 1040 ------- 0 0.0 3.0 50 83
+ 0.73192 2 3 tcp 1040 ------- 0 0.0 3.0 50 83
- 0.73192 2 3 tcp 1040 ------- 0 0.0 3.0 50 83
r 0.7336 2 3 tcp 1040 ------- 0 0.0 3.0 48 79
+ 0.7336 3 2 ack 40 ------- 0 3.0 0.0 48 114
- 0.7336 3 2 ack 40 ------- 0 3.0 0.0 48 114
r 0.7356 3 2 ack 40 ------- 0 3.0 0.0 47 112
+ 0.7356 2 0 ack 40 ------- 0 3.0 0.0 47 112
- 0.7356 2 0 ack 40 ------- 0 3.0 0.0 47 112
r 0.7376 2 0 ack 40 ------- 0 3.0 0.0 46 110
+ 0.7376 0 2 tcp 1040 ------- 0 0.0 3.0 66 115
- 0.73856 0 2 tcp 1040 ------- 0 0.0 3.0 53 89
r 0.74024 0 2 tcp 1040 ------- 0 0.0 3.0 51 85
+ 0.74024 2 3 tcp 1040 ------- 0 0.0 3.0 51 85
- 0.74024 2 3 tcp 1040 ------- 0 0.0 3.0 51 85
r 0.74192 2 3 tcp 1040 ------- 0 0.0 3.0 49 81
+ 0.74192 3 2 ack 40 ------- 0 3.0 0.0 49 116
- 0.74192 3 2 ack 40 ------- 0 3.0 0.0 49 116
r 0.74392 3 2 ack 40 ------- 0 3.0 0.0 48 114
+ 0.74392 2 0 ack 40 ------- 0 3.0 0.0 48 114
- 0.74392 2 0 ack 40 ------- 0 3.0 0.0 48 114
r 0.74592 2 0 ack 40 ------- 0 3.0 0.0 47 112
+ 0.74592 0 2 tcp 1040 ------- 0 0.0 3.0 67 117
- 0.74688 0 2 tcp 1040 ------- 0 0.0 3.0 54 91
r 0.74856 0 2 tcp 1040 ------- 0 0.0 3.0 52 87
+ 0.74856 2 3 tcp 1040 ------- 0 0.0 3.0 52 87
- 0.74856 2 3 tcp 1040 ------- 0 0.0 3.0 52 87
r 0.75024 2 3 tcp 1040 ------- 0 0.0 3.0 50 83
+ 0.75024 3 2 ack 40 ------- 0 3.0 0.0 50 118
- 0.75024 3 2 ack 40 ------- 0 3.0 0.0 50 118
r 0.75224 3 2 ack 40 ------- 0 3.0 0.0 49 116
+ 0.75224 2 0 ack 40 ------- 0 3.0 0.0 49 116
- 0.75224 2 0 ack 40 ------- 0 3.0 0.0 49 116
r 0.75424 2 0 ack 40 ------- 0 3.0 0.0 48 114
+ 0.75424 0 2 tcp 1040 ------- 0 0.0 3.0 68 119
- 0.7552 0 2 tcp 1040 ------- 0 0.0 3.0 55 93
r 0.75688 0 2 tcp 1040 ------- 0 0.0 3.0 53 89
+ 0.75688 2 3 tcp 1040 ------- 0 0.0 3.0 53 89
- 0.75688 2 3 tcp 1040 ------- 0 0.0 3.0 53 89
r 0.75856 2 3 tcp 1040 ------- 0 0.0 3.0 51 85
+ 0.75856 3 2 ack 40 ------- 0 3.0 0.0 51 120
- 0.75856 3 2 ack 40 ------- 0 3.0 0.0 51 120
r 0.76056 3 2 ack 40 ------- 0 3.0 0.0 50 118
+ 0.76056 2 0 ack 40 ------- 0 3.0 0.0 50 118
- 0.76056 2 0 ack 40 ------- 0 3.0 0.0 50 118
r 0.76256 2 0 ack 40 ------- 0 3.0 0.0 49 116
+ 0.76256 0 2 tcp 1040 ------- 0 0.0 3.0 69 121
- 0.76352 0 2 tcp 1040 ------- 0 0.0 3.0 56 95
r 0.7652 0 2 tcp 1040 ------- 0 0.0 3.0 54 91
+ 0.7652 2 3 tcp 1040 ------- 0 0.0 3.0 54 91
- 0.7652 2 3 tcp 1040 ------- 0 0.0 3.0 54 91
r 0.76688 2 3 tcp 1040 ------- 0 0.0 3.0 52 87
+ 0.76688 3 2 ack 40 ------- 0 3.0 0.0 52 122
- 0.76688 3 2 ack 40 ------- 0 3.0 0.0 52 122
r 0.76888 3 2 ack 40 ------- 0 3.0 0.0 51 120
+ 0.76888 2 0 ack 40 ------- 0 3.0 0.0 51 120
- 0.76888 2 0 ack 40 ------- 0 3.0 0.0 51 120